<?xml version="1.0" encoding="UTF-8"?>

<!-- generated on 2024-04-03 00:22:41 by Eclipse SUMO sumo Version 1.19.0
<configuration xmlns:xsi="http://www.w3.org/2001/XMLSchema-instance" xsi:noNamespaceSchemaLocation="http://sumo.dlr.de/xsd/sumoConfiguration.xsd">

    <input>
        <net-file value="C:\Users\Joonas\Downloads\sumo-win64-1.19.0\sumo-1.19.0\tools\2024-04-03-00-22-35\osm.net.xml.gz"/>
        <route-files value="C:\Users\Joonas\Downloads\sumo-win64-1.19.0\sumo-1.19.0\tools\2024-04-03-00-22-35\trips.trips.xml"/>
        <additional-files value="C:\Users\Joonas\Downloads\sumo-win64-1.19.0\sumo-1.19.0\tools\2024-04-03-00-22-35\osm_stops.add.xml"/>
    </input>

    <output>
        <vehroute-output value="C:\Users\Joonas\Downloads\sumo-win64-1.19.0\sumo-1.19.0\tools\2024-04-03-00-22-35\vehroutes.xml"/>
        <stop-output value="C:\Users\Joonas\Downloads\sumo-win64-1.19.0\sumo-1.19.0\tools\2024-04-03-00-22-35\stopinfos.xml"/>
    </output>

    <time>
        <begin value="0.0"/>
    </time>

    <processing>
        <ignore-route-errors value="true"/>
    </processing>

    <routing>
        <device.rerouting.adaptation-interval value="0"/>
    </routing>

    <report>
        <aggregate-warnings value="5"/>
        <error-log value="C:\Users\Joonas\Downloads\sumo-win64-1.19.0\sumo-1.19.0\tools\2024-04-03-00-22-35\trips.trips.xml.errorlog"/>
        <no-step-log value="true"/>
    </report>

</configuration>
-->

<routes xmlns:xsi="http://www.w3.org/2001/XMLSchema-instance" xsi:noNamespaceSchemaLocation="http://sumo.dlr.de/xsd/routes_file.xsd">
    <vehicle id="9_bus_2:1" type="pt_bus" depart="47.00" departLane="0" arrival="446.00">
        <route edges="129857672 36736000#0 36736000#1 36736000#2 36736000#3 36736000#4 36736000#5 36736000#6 36736000#7 36736000#8 36736000#9 36736000#10 36736000#11 36736000#12 36736000#13 36736000#14 36736534#0 36736534#1 36736534#2 225314605#0 225314605#2 36736537#0 36736538 53109782#1 32236937"/>
        <stop busStop="427144109" duration="30.00"/>
        <stop busStop="650774425" duration="30.00"/>
        <stop busStop="659578624" duration="30.00"/>
    </vehicle>

    <vehicle id="2_bus_40:0" type="pt_bus" depart="15.00" departLane="0" arrival="605.00">
        <route edges="79761424#0 79761424#1 45356987#0 45356987#1 129437897#0 129437897#1 129437897#2 53259724 45356986 -45356991#2 -45356991#1 -36768024#1 -36768024#0 44850722 1255350597 160105973#0 160105973#1 199260468#1 1255350489 75744245#1 75744245#3 75744245#4 135256124#0 135256124#2 230541105#0 230541105#1 230541105#2 1255350541#0 1255350541#1 219919662 36865768 219839536#0 219839536#1 219839544 219839531#0 219839531#1 135256136 219839539"/>
        <stop busStop="427741944" duration="30.00"/>
    </vehicle>

    <vehicle id="11_bus_1:1" type="pt_bus" depart="54.00" departLane="1" arrival="631.00">
        <route edges="32236935#0 48900317#0 48900317#1 1255350593 1255350596#0 1255350596#1 9828298#0 76811652#0 76811652#1 356112250 -1255350601#0 -1255350600 -10207176#1 -10207176#0 -36736000#14 -36736000#13 -36736000#12 -36736000#11 36792406#0 36792406#1 36792406#2 1255350602 1184254523#1 -357738872 -1255350487#1 -121904036#1 -121904036#0 76811653#0 76811653#1 51732885#0 51732885#1 121904032#1 121904032#2 121904032#3 121904032#4 121904032#5 121904032#6 121904038#0 121904038#1 130596423#0 130596423#1 1139132979#0 1139132979#1 121904037#0 121904037#1 121904037#2 121904037#3 121904037#4 121904037#5 10204536#0 10204536#1 10204536#2 10204536#3 10204536#4 10204536#5 10204536#6 36735997#0 36735997#1 36735997#2 36735997#3 36735997#4 36735997#5 36735997#6"/>
        <stop busStop="-427144104" duration="30.00"/>
    </vehicle>

    <vehicle id="14_bus_1M:0" type="pt_bus" depart="60.00" departLane="0" arrival="644.00">
        <route edges="-36736000#12 -36736000#11 36736000#11 36736000#12 36736000#13 36736000#14 36736534#0 36736534#1 36736534#2 225314605#0 225314605#2 75739000 75744245#1 75744245#3 75744245#4 135256124#0 135256124#2 230541105#0 230541105#1 230541105#2 1255350541#0 1255350541#1 219919662 36865768 219839536#0 219839536#1 219839544 219839531#0 219839531#1 135256136 219839539"/>
        <stop busStop="-427144104" duration="30.00"/>
        <stop busStop="427741946" duration="30.00"/>
    </vehicle>

    <vehicle id="4_bus_25:0" type="pt_bus" depart="17.00" departLane="0" arrival="661.00">
        <route edges="1255350605 25832375#0 25832375#1 25832375#2 25832375#3 25832375#4 25832375#5 -10204536#6 -10204536#5 -10204536#4 -10204536#3 -10204536#2 -10204536#1 -10204536#0 -121904037#5 -121904037#4 -121904037#3 -121904037#2 -121904037#1 -121904037#0 -1139132979#1 -1139132979#0 -130596423#1 -130596423#0 -121904038#1 -121904038#0 -121904032#6 -121904032#5 -121904032#4 -121904032#3 -121904032#2 -121904032#1 121904034 121904033#0 121904033#1 121904036#0 121904036#1 1255350487#0 357738872 -1184254523#1 -1184254523#0 -36792406#2 -36792406#1 -36792406#0 36736000#11 36736000#12 36736000#13 36736000#14 36736534#0 36736534#1 36736534#2 225314605#0 225314605#2 36736537#0 36736538 53109782#1 32236937"/>
        <stop busStop="427144133" duration="30.00"/>
        <stop busStop="650774425" duration="30.00"/>
        <stop busStop="659578624" duration="30.00"/>
    </vehicle>

    <vehicle id="41_bus_1M:1" type="pt_bus" depart="188.00" departLane="0" arrival="682.00">
        <route edges="32236935#0 48900317#0 48900317#1 1255350593 1255350596#0 1255350596#1 9827773#0 9827773#2 1255350489 75744245#1 75744245#3 75744245#4 135256124#0 135256124#2 230541105#0 230541105#1 230541105#2 1255350541#0 1255350541#1 219919662 36865768 219839536#0 219839536#1 219839544 219839531#0 219839531#1 135256136 219839539"/>
        <stop busStop="427741946" duration="30.00"/>
    </vehicle>

    <vehicle id="44_bus_10:3" type="pt_bus" depart="204.00" departLane="0" arrival="720.00">
        <route edges="32236935#0 48900317#0 48900317#1 1255350593 1255350596#0 1255350596#1 9827773#0 9827773#2 1255350489 75744245#1 75744245#3 75744245#4 135256124#0 135256124#2 230541105#0 230541105#1 230541105#2 1255350541#0 1255350541#1 219919662 36865768 219839536#0 219839536#1 219839544 219839531#0 219839531#1 135256136 219839539"/>
        <stop busStop="427741946" duration="30.00"/>
    </vehicle>

    <vehicle id="34_bus_Jyväskylä_-_Pihtipudas:0" type="pt_bus" depart="158.00" departLane="0" arrival="727.00">
        <route edges="79761424#0 79761424#1 45356987#0 45356987#1 129437897#0 129437897#1 129437897#2 53259724 45356986 -45356991#2 -45356991#1 -36768024#1 -36768024#0 44850722 1255350597 160105973#0 160105973#1 199260468#1 1255350489 75744245#1 75744245#3 75744245#4 135256124#0 135256124#2 230541105#0 230541105#1 230541105#2 1255350541#0 1255350541#1 219919662 36865768 219839536#0 219839536#1 219839544 219839531#0 219839531#1 135256136 219839539"/>
        <stop busStop="427741944" duration="30.00"/>
    </vehicle>

    <vehicle id="3_bus_40:1" type="pt_bus" depart="15.00" departLane="0" arrival="820.00">
        <route edges="219839538 -135256136 219839537#0 219839537#1 -219839544 219839530#0 219839530#1 -36865768 219919658 -125663494 36826406#0 36826406#1 36826406#2 270326706#0 270326706#1 270326706#2 1255350591#0 1255350591#1 55358954#0 225314613 36736537#0 76811652#0 76811652#1 356112250 45356993 36768024#0 36768024#1 44842048"/>
        <stop busStop="428075082" duration="30.00"/>
        <stop busStop="1543094086" duration="30.00"/>
    </vehicle>

    <vehicle id="13_bus_3:1" type="pt_bus" depart="66.00" departLane="1" arrival="831.00">
        <route edges="32236935#0 48900317#0 48900317#1 1255350593 1255350596#0 1255350596#1 9828298#0 76811652#0 76811652#1 356112250 -1255350601#0 -1255350600 -10207176#1 -10207176#0 -36736000#14 -36736000#13 -36736000#12 -36736000#11 36792406#0 36792406#1 36792406#2 1255350602 1184254523#1 -357738872 -1255350487#1 -121904036#1 -121904036#0 76811653#0 76811653#1 51732885#0 51732885#1 121904032#1 121904032#2 121904032#3 121904032#4 121904032#5 121904032#6 121904038#0 121904038#1 130596423#0 130596423#1 1139132979#0 1139132979#1 121904037#0 121904037#1 121904037#2 121904037#3 121904037#4 121904037#5 10204536#0 10204536#1 10204536#2 10204536#3 10204536#4 10204536#5 10204536#6 36735997#0 36735997#1 36735997#2 36735997#3 36735997#4 36735997#5 36735997#6"/>
        <stop busStop="-427144104" duration="30.00"/>
    </vehicle>

    <vehicle id="12_bus_2:3" type="pt_bus" depart="60.00" departLane="1" arrival="834.00">
        <route edges="32236935#0 48900317#0 48900317#1 1255350593 1255350596#0 1255350596#1 9828298#0 76811652#0 76811652#1 356112250 -1255350601#0 -1255350600 -10207176#1 -10207176#0 -36736000#14 -36736000#13 -36736000#12 -36736000#11 36792406#0 36792406#1 36792406#2 1255350602 1184254523#1 -357738872 -1255350487#1 -121904036#1 -121904036#0 76811653#0 76811653#1 51732885#0 51732885#1 121904032#1 121904032#2 121904032#3 121904032#4 121904032#5 121904032#6 121904038#0 121904038#1 130596423#0 130596423#1 1139132979#0 1139132979#1 121904037#0 121904037#1 121904037#2 121904037#3 121904037#4 121904037#5 10204536#0 10204536#1 10204536#2 10204536#3 10204536#4 10204536#5 10204536#6 36735997#0 36735997#1 36735997#2 36735997#3 36735997#4 36735997#5 36735997#6"/>
        <stop busStop="-427144104" duration="30.00"/>
    </vehicle>

    <vehicle id="18_bus_10:0" type="pt_bus" depart="98.00" departLane="1" arrival="837.00">
        <route edges="32236935#0 48900317#0 48900317#1 1255350593 1255350596#0 1255350596#1 9828298#0 76811652#0 76811652#1 356112250 -1255350601#0 -1255350600 -10207176#1 -10207176#0 -36736000#14 -36736000#13 -36736000#12 -36736000#11 36792406#0 36792406#1 36792406#2 1255350602 1184254523#1 -357738872 -1255350487#1 -121904036#1 -121904036#0 76811653#0 76811653#1 51732885#0 51732885#1 121904032#1 121904032#2 121904032#3 121904032#4 121904032#5 121904032#6 121904038#0 121904038#1 130596423#0 130596423#1 1139132979#0 1139132979#1 121904037#0 121904037#1 121904037#2 121904037#3 121904037#4 121904037#5 10204536#0 10204536#1 10204536#2 10204536#3 10204536#4 10204536#5 10204536#6 36735997#0 36735997#1 36735997#2 36735997#3 36735997#4 36735997#5 36735997#6"/>
        <stop busStop="-427144104" duration="30.00"/>
    </vehicle>

    <vehicle id="26_bus_42:2" type="pt_bus" depart="132.00" departLane="0" arrival="847.00">
        <route edges="129857672 36736000#0 36736000#1 36736000#2 36736000#3 36736000#4 36736000#5 36736000#6 36736000#7 36736000#8 36736000#9 36736000#10 36736000#11 36736000#12 36736000#13 36736000#14 36736534#0 36736534#1 36736534#2 225314605#0 225314605#2 75739000 75744245#1 75744245#3 75744245#4 135256124#0 135256124#2 230541105#0 230541105#1 230541105#2 1255350541#0 1255350541#1 219919662 36865768 219839536#0 219839536#1 219839544 219839531#0 219839531#1 135256136 219839539"/>
        <stop busStop="427144109" duration="30.00"/>
        <stop busStop="427741938" duration="30.00"/>
        <stop busStop="427741946" duration="30.00"/>
    </vehicle>

    <vehicle id="28_bus_Jyväskylä_–_Keuruu:0" type="pt_bus" depart="136.00" departLane="0" arrival="873.00">
        <route edges="45356994#0 45356994#1 156532900 45356987#0 45356987#1 129437897#0 129437897#1 129437897#2 53259724 45356986 -45356991#2 -45356991#1 -36768024#1 -36768024#0 44850722 1255350597 160105973#0 160105973#1 199260468#1 1255350489 75744245#1 75744245#3 75744245#4 135256124#0 135256124#2 230541105#0 230541105#1 230541105#2 1255350541#0 1255350541#1 37568263#0 37568263#1 1255350543#1 53059777#0 53060862#0 53060862#1 53060862#2 1255350548#0 1255350548#1 36865769#0 36865769#1 1151626837#0 1151626837#1"/>
        <stop busStop="431901579" duration="30.00"/>
    </vehicle>

    <vehicle id="30_bus_Jyväskylä_–_Uurainen:0" type="pt_bus" depart="141.00" departLane="0" arrival="931.00">
        <route edges="45356994#0 45356994#1 156532900 45356987#0 45356987#1 129437897#0 129437897#1 129437897#2 53259724 45356986 -45356991#2 -45356991#1 -36768024#1 -36768024#0 44850722 1255350597 160105973#0 160105973#1 199260468#1 1255350489 75744245#1 75744245#3 75744245#4 135256124#0 135256124#2 230541105#0 230541105#1 230541105#2 1255350541#0 1255350541#1 37568263#0 37568263#1 1255350543#1 53059777#0 53060862#0 53060862#1 53060862#2 1255350548#0 1255350548#1 36865769#0 36865769#1 1151626837#0 1151626837#1"/>
        <stop busStop="431901579" duration="30.00"/>
    </vehicle>

    <vehicle id="19_bus_12:0" type="pt_bus" depart="102.00" departLane="0" arrival="940.00">
        <route edges="25832375#2 25832375#3 25832375#4 25832375#5 -10204536#6 -10204536#5 -10204536#4 -10204536#3 -10204536#2 -10204536#1 -10204536#0 -121904037#5 -121904037#4 -121904037#3 -121904037#2 -121904037#1 -121904037#0 -1139132979#1 -1139132979#0 -130596423#1 -130596423#0 -121904038#1 -121904038#0 -121904032#6 -121904032#5 -121904032#4 -121904032#3 -121904032#2 -121904032#1 121904034 -130596420 -650577130#1 -650577130#0 -55358955 -55358956#0 -1056911808 -36789027 36789027 129857672 36736000#0 36736000#1 36736000#2 36736000#3 36736000#4 36736000#5 36736000#6 36736000#7 36736000#8 36736000#9 36736000#10 36736000#11 36736000#12 36736000#13 36736000#14 36736534#0 36736534#1"/>
        <stop busStop="427144133" duration="30.00"/>
        <stop busStop="6029151339" duration="30.00"/>
        <stop busStop="427741938" duration="30.00"/>
    </vehicle>

    <vehicle id="5_bus_25:1" type="pt_bus" depart="23.00" departLane="0" arrival="1038.00">
        <route edges="1255350605 25832375#0 25832375#1 25832375#2 25832375#3 25832375#4 25832375#5 -10204536#6 -10204536#5 -10204536#4 -10204536#3 -10204536#2 -10204536#1 -10204536#0 -121904037#5 -121904037#4 -121904037#3 -121904037#2 -121904037#1 -121904037#0 -1139132979#1 -1139132979#0 -130596423#1 -130596423#0 -121904038#1 -121904038#0 -121904032#6 -121904032#5 -121904032#4 -121904032#3 -121904032#2 -121904032#1 121904034 -130596420 -650577130#1 -650577130#0 -55358955 -55358956#0 -1056911808 -36789027 36789027 129857672 36736000#0 36736000#1 36736000#2 36736000#3 36736000#4 36736000#5 36736000#6 36736000#7 36736000#8 36736000#9 36736000#10 36736000#11 36736000#12 36736000#13 36736000#14 36736534#0 36736534#1 36736534#2 225314605#0 225314605#2 36736537#0 36736538 53109782#1 32236937"/>
        <stop busStop="427144133" duration="30.00"/>
        <stop busStop="6029151339" duration="30.00"/>
        <stop busStop="650774425" duration="30.00"/>
        <stop busStop="659578624" duration="30.00"/>
    </vehicle>

    <vehicle id="47_bus_13:3" type="pt_bus" depart="227.00" departLane="0" arrival="1073.00">
        <route edges="1255350603 51732892#2 51732890 -1255350500 -121904037#5 -121904037#4 -121904037#3 -121904037#2 -121904037#1 -121904037#0 -1139132979#1 -1139132979#0 -130596423#1 -130596423#0 -121904038#1 -121904038#0 -121904032#6 -121904032#5 -121904032#4 -121904032#3 -121904032#2 -121904032#1 121904034 -130596420 -650577130#1 -650577130#0 -55358955 -55358956#0 -1056911808 -36789027 36789027 129857672 36736000#0 36736000#1 36736000#2 36736000#3 36736000#4 36736000#5 36736000#6 36736000#7 36736000#8 36736000#9 36736000#10 36736000#11 36736000#12 36736000#13 36736000#14 36736534#0 36736534#1 36736534#2 225314605#0 225314605#2 75739000 75744245#1 75744245#3 75744245#4 135256124#0 135256124#2 230541105#0 230541105#1 230541105#2 1255350541#0 1255350541#1 219919662 36865768"/>
        <stop busStop="9948795331" duration="30.00"/>
        <stop busStop="427741938" duration="30.00"/>
        <stop busStop="428075084" duration="30.00"/>
    </vehicle>

    <vehicle id="6_bus_3:0" type="pt_bus" depart="40.00" departLane="0" arrival="1077.00">
        <route edges="1255350605 25832375#0 25832375#1 25832375#2 25832375#3 25832375#4 25832375#5 -10204536#6 -10204536#5 -10204536#4 -10204536#3 -10204536#2 -10204536#1 -10204536#0 -121904037#5 -121904037#4 -121904037#3 -121904037#2 -121904037#1 -121904037#0 -1139132979#1 -1139132979#0 -130596423#1 -130596423#0 -121904038#1 -121904038#0 -121904032#6 -121904032#5 -121904032#4 -121904032#3 -121904032#2 -121904032#1 121904034 -130596420 -650577130#1 -650577130#0 -55358955 -55358956#0 36736000#0 36736000#1 36736000#2 36736000#3 36736000#4 36736000#5 36736000#6 36736000#7 36736000#8 36736000#9 36736000#10 36736000#11 36736000#12 36736000#13 36736000#14 36736534#0 36736534#1 36736534#2 225314605#0 225314605#2 36736537#0 36736538 53109782#1 32236937"/>
        <stop busStop="427144135" duration="30.00"/>
        <stop busStop="427144109" duration="30.00"/>
        <stop busStop="650774425" duration="30.00"/>
        <stop busStop="659578624" duration="30.00"/>
    </vehicle>

    <vehicle id="15_bus_2M:0" type="pt_bus" depart="71.00" departLane="1" arrival="1098.00">
        <route edges="32236935#0 48900317#0 48900317#1 1255350593 1255350596#0 1255350596#1 9828298#0 76811652#0 76811652#1 356112250 -1255350601#0 -1255350600 -10207176#1 -10207176#0 -36736000#14 -36736000#13 -36736000#12 -36736000#11 36792406#0 36792406#1 36792406#2 1255350602 1184254523#1 -357738872 -1255350487#1 -121904036#1 -121904036#0 76811653#0 76811653#1 51732885#0 51732885#1 121904032#1 121904032#2 121904032#3 121904032#4 121904032#5 121904032#6 121904038#0 121904038#1 130596423#0 130596423#1 1139132979#0 1139132979#1 121904037#0 121904037#1 121904037#2 121904037#3 121904037#4 121904037#5 10204536#0 10204536#1 10204536#2 10204536#3 10204536#4 10204536#5 10204536#6 -25832375#5 -25832375#4 -25832375#3 -25832375#2 -25832375#1 -25832375#0 -1255350605"/>
        <stop busStop="-427144104" duration="30.00"/>
    </vehicle>

    <vehicle id="86_bus_22:0" type="pt_bus" depart="432.00" departLane="0" arrival="1111.00">
        <route edges="129857672 36736000#0 36736000#1 36736000#2 36736000#3 36736000#4 36736000#5 36736000#6 36736000#7 36736000#8 36736000#9 36736000#10 36736000#11 36736000#12 36736000#13 36736000#14 36736534#0 36736534#1 36736534#2 225314605#0 225314605#2 75739000 75744245#1 75744245#3 75744245#4 135256124#0 135256124#2 230541105#0 230541105#1 230541105#2 1255350541#0 1255350541#1 219919662 36865768 219839536#0 219839536#1 219839544 219839531#0 219839531#1 135256136 219839539"/>
        <stop busStop="427741938" duration="30.00"/>
        <stop busStop="427741946" duration="30.00"/>
    </vehicle>

    <vehicle id="7_bus_1:0" type="pt_bus" depart="58.00" departLane="0" arrival="1117.00">
        <route edges="1255350605 25832375#0 25832375#1 25832375#2 25832375#3 25832375#4 25832375#5 -10204536#6 -10204536#5 -10204536#4 -10204536#3 -10204536#2 -10204536#1 -10204536#0 -121904037#5 -121904037#4 -121904037#3 -121904037#2 -121904037#1 -121904037#0 -1139132979#1 -1139132979#0 -130596423#1 -130596423#0 -121904038#1 -121904038#0 -121904032#6 -121904032#5 -121904032#4 -121904032#3 -121904032#2 -121904032#1 121904034 -130596420 -650577130#1 -650577130#0 -55358955 -55358956#0 36736000#0 36736000#1 36736000#2 36736000#3 36736000#4 36736000#5 36736000#6 36736000#7 36736000#8 36736000#9 36736000#10 36736000#11 36736000#12 36736000#13 36736000#14 36736534#0 36736534#1 36736534#2 225314605#0 225314605#2 36736537#0 36736538 53109782#1 32236937"/>
        <stop busStop="427144135" duration="30.00"/>
        <stop busStop="427144109" duration="30.00"/>
        <stop busStop="650774425" duration="30.00"/>
        <stop busStop="659578624" duration="30.00"/>
    </vehicle>

    <vehicle id="88_bus_22:2" type="pt_bus" depart="437.00" departLane="0" arrival="1151.00">
        <route edges="129857672 36736000#0 36736000#1 36736000#2 36736000#3 36736000#4 36736000#5 36736000#6 36736000#7 36736000#8 36736000#9 36736000#10 36736000#11 36736000#12 36736000#13 36736000#14 36736534#0 36736534#1 36736534#2 225314605#0 225314605#2 75739000 75744245#1 75744245#3 75744245#4 135256124#0 135256124#2 230541105#0 230541105#1 230541105#2 1255350541#0 1255350541#1 219919662 36865768 219839536#0 219839536#1 219839544 219839531#0 219839531#1 135256136 219839539"/>
        <stop busStop="427741938" duration="30.00"/>
        <stop busStop="427741946" duration="30.00"/>
    </vehicle>

    <vehicle id="81_bus_3:2" type="pt_bus" depart="406.00" departLane="1" arrival="1203.00">
        <route edges="32236935#0 48900317#0 48900317#1 1255350593 1255350596#0 1255350596#1 9828298#0 76811652#0 76811652#1 356112250 -1255350601#0 -1255350600 -10207176#1 -10207176#0 -36736000#14 -36736000#13 -36736000#12 -36736000#11 36736000#11 36736000#12 36736000#13 36736000#14 36736534#0 36736534#1 36736534#2 225314605#0 225314605#2 75739000 75744245#1 75744245#3 75744245#4 135256124#0 135256124#2 230541105#0 230541105#1 230541105#2 1255350541#0 1255350541#1 219919662 36865768 219839536#0 219839536#1 219839544 219839531#0 219839531#1 135256136 219839539"/>
        <stop busStop="-427144104" duration="30.00"/>
    </vehicle>

    <vehicle id="21_bus_43:0" type="pt_bus" depart="119.00" departLane="1" arrival="1229.00">
        <route edges="32236935#0 48900317#0 48900317#1 1255350593 1255350596#0 1255350596#1 9828298#0 76811652#0 76811652#1 356112250 -1255350601#0 -1255350600 -10207176#1 -10207176#0 -36736000#14 -36736000#13 -36736000#12 -36736000#11 36792406#0 36792406#1 36792406#2 1255350602 1184254523#1 -357738872 -1255350487#1 -121904036#1 -121904036#0 76811653#0 76811653#1 51732885#0 51732885#1 121904032#1 121904032#2 121904032#3 121904032#4 121904032#5 121904032#6 121904038#0 121904038#1 130596423#0 130596423#1 1139132979#0 1139132979#1 121904037#0 121904037#1 121904037#2 121904037#3 121904037#4 121904037#5 10204536#0 10204536#1 10204536#2 10204536#3 10204536#4 10204536#5 10204536#6 36735997#0 36735997#1 36735997#2 36735997#3 36735997#4 36735997#5 36735997#6"/>
        <stop busStop="-427144104" duration="30.00"/>
    </vehicle>

    <vehicle id="77_bus_20:1" type="pt_bus" depart="384.00" departLane="0" arrival="1229.00">
        <route edges="1255350603 51732892#2 51732890 -1255350500 -121904037#5 -121904037#4 -121904037#3 -121904037#2 -121904037#1 -121904037#0 -1139132979#1 -1139132979#0 -130596423#1 -130596423#0 -121904038#1 -121904038#0 -121904032#6 -121904032#5 -121904032#4 -121904032#3 -121904032#2 -121904032#1 121904034 -130596420 -650577130#1 -650577130#0 -55358955 -55358956#0 -1056911808 -36789027 36789027 129857672 36736000#0 36736000#1 36736000#2 36736000#3 36736000#4 36736000#5 36736000#6 36736000#7 36736000#8 36736000#9 36736000#10 36736000#11 36736000#12 36736000#13 36736000#14 36736534#0 36736534#1 36736534#2 225314605#0 225314605#2 36736537#0 36736538 53109782#1 32236937"/>
        <stop busStop="6029151339" duration="30.00"/>
        <stop busStop="650774425" duration="30.00"/>
        <stop busStop="659578624" duration="30.00"/>
    </vehicle>

    <vehicle id="24_bus_42:0" type="pt_bus" depart="131.00" departLane="1" arrival="1231.00">
        <route edges="32236935#0 48900317#0 48900317#1 1255350593 1255350596#0 1255350596#1 9828298#0 76811652#0 76811652#1 356112250 -1255350601#0 -1255350600 -10207176#1 -10207176#0 -36736000#14 -36736000#13 -36736000#12 -36736000#11 36792406#0 36792406#1 36792406#2 1255350602 1184254523#1 -357738872 -1255350487#1 -121904036#1 -121904036#0 76811653#0 76811653#1 51732885#0 51732885#1 121904032#1 121904032#2 121904032#3 121904032#4 121904032#5 121904032#6 121904038#0 121904038#1 130596423#0 130596423#1 1139132979#0 1139132979#1 121904037#0 121904037#1 121904037#2 121904037#3 121904037#4 121904037#5 10204536#0 10204536#1 10204536#2 10204536#3 10204536#4 10204536#5 10204536#6 36735997#0 36735997#1 36735997#2 36735997#3 36735997#4 36735997#5 36735997#6"/>
        <stop busStop="-427144104" duration="30.00"/>
    </vehicle>

    <vehicle id="42_bus_10:1" type="pt_bus" depart="189.00" departLane="1" arrival="1234.00">
        <route edges="32236935#0 48900317#0 48900317#1 1255350593 1255350596#0 1255350596#1 9828298#0 76811652#0 76811652#1 356112250 -1255350601#0 -1255350600 -10207176#1 -10207176#0 -36736000#14 -36736000#13 -36736000#12 -36736000#11 36792406#0 36792406#1 36792406#2 1255350602 1184254523#1 -357738872 -1255350487#1 -121904036#1 -121904036#0 76811653#0 76811653#1 51732885#0 51732885#1 121904032#1 121904032#2 121904032#3 121904032#4 121904032#5 121904032#6 121904038#0 121904038#1 130596423#0 130596423#1 1139132979#0 1139132979#1 121904037#0 121904037#1 121904037#2 121904037#3 121904037#4 121904037#5 10204536#0 10204536#1 10204536#2 10204536#3 10204536#4 10204536#5 10204536#6 36735997#0 36735997#1 36735997#2 36735997#3 36735997#4 36735997#5 36735997#6"/>
        <stop busStop="-427144104" duration="30.00"/>
    </vehicle>

    <vehicle id="59_bus_15:3" type="pt_bus" depart="305.00" departLane="0" arrival="1296.00">
        <route edges="-36789027 36789027 129857672 55358956#0 55358956#1 650577130#0 650577130#1 130596420 51732885#0 51732885#1 121904032#1 121904032#2 121904032#3 121904032#4 121904032#5 121904032#6 121904038#0 121904038#1 130596423#0 130596423#1 1139132979#0 1139132979#1 121904037#0 121904037#1 121904037#2 121904037#3 121904037#4 121904037#5 10204536#0 10204536#1 10204536#2 10204536#3 10204536#4 10204536#5 10204536#6 36735996#0 36735996#1 36735996#2 36735996#3 36735996#4 36735996#5 -36735996#5 -36735996#4 -36735996#3 -36735996#2 -36735996#1 -36735996#0 -25832375#5 -25832375#4 -25832375#3 -25832375#2 -25832375#1 -25832375#0 -1255350605"/>
        <stop busStop="-9948795329" duration="30.00"/>
        <stop busStop="-427144127" duration="30.00"/>
    </vehicle>

    <vehicle id="36_bus_Pihtipudas-Jyväskylä:0" type="pt_bus" depart="170.00" departLane="0" arrival="1305.00">
        <route edges="219839538 -135256136 219839537#0 219839537#1 -219839544 219839530#0 219839530#1 -36865768 219919658 -125663494 36826406#0 36826406#1 36826406#2 270326706#0 270326706#1 270326706#2 1255350591#0 1255350591#1 55358954#0 225314613 36736537#0 76811652#0 76811652#1 356112250 45356993 36768024#0 36768024#1 44842048 45356990 129437898#0 129437898#1 129437898#2 156532898"/>
        <stop busStop="-428075083" duration="30.00"/>
        <stop busStop="1543094086@2109154" duration="30.00"/>
    </vehicle>

    <vehicle id="37_bus_Pihtipudas-Jyväskylä:1" type="pt_bus" depart="176.00" departLane="0" arrival="1354.00">
        <route edges="219839538 -135256136 219839537#0 219839537#1 -219839544 219839530#0 219839530#1 -36865768 219919658 -125663494 36826406#0 36826406#1 36826406#2 270326706#0 270326706#1 270326706#2 1255350591#0 1255350591#1 55358954#0 225314613 36736537#0 76811652#0 76811652#1 356112250 45356993 36768024#0 36768024#1 44842048 45356990 129437898#0 129437898#1 129437898#2 156532898"/>
        <stop busStop="-428075083" duration="30.00"/>
        <stop busStop="1543094086@2109154" duration="30.00"/>
    </vehicle>

    <vehicle id="8_bus_2:0" type="pt_bus" depart="77.00" departLane="0" arrival="1420.00">
        <route edges="1255350605 25832375#0 25832375#1 25832375#2 25832375#3 25832375#4 25832375#5 -10204536#6 -10204536#5 -10204536#4 -10204536#3 -10204536#2 -10204536#1 -10204536#0 -121904037#5 -121904037#4 -121904037#3 -121904037#2 -121904037#1 -121904037#0 -1139132979#1 -1139132979#0 -130596423#1 -130596423#0 -121904038#1 -121904038#0 -121904032#6 -121904032#5 -121904032#4 -121904032#3 -121904032#2 -121904032#1 121904034 -130596420 -650577130#1 -650577130#0 -55358955 -55358956#0 36736000#0 36736000#1 36736000#2 36736000#3 36736000#4 36736000#5 36736000#6 36736000#7 36736000#8 36736000#9 36736000#10 36736000#11 36736000#12 36736000#13 36736000#14 36736534#0 36736534#1 36736534#2 225314605#0 225314605#2 36736537#0 36736538 53109782#1 32236937"/>
        <stop busStop="427144135" duration="30.00"/>
        <stop busStop="427144109" duration="30.00"/>
        <stop busStop="650774425" duration="30.00"/>
        <stop busStop="659578624" duration="30.00"/>
    </vehicle>

    <vehicle id="79_bus_1:2" type="pt_bus" depart="389.00" departLane="1" arrival="1431.00">
        <route edges="32236935#0 48900317#0 48900317#1 1255350593 1255350596#0 1255350596#1 9828298#0 76811652#0 76811652#1 356112250 -1255350601#0 -1255350600 -10207176#1 -10207176#0 -36736000#14 -36736000#13 -36736000#12 -36736000#11 36792406#0 36792406#1 36792406#2 1255350602 1184254523#1 -357738872 -1255350487#1 -121904036#1 -121904036#0 76811653#0 76811653#1 51732885#0 51732885#1 121904032#1 121904032#2 121904032#3 121904032#4 121904032#5 121904032#6 121904038#0 121904038#1 130596423#0 130596423#1 1139132979#0 1139132979#1 121904037#0 121904037#1 121904037#2 121904037#3 121904037#4 121904037#5 10204536#0 10204536#1 10204536#2 10204536#3 10204536#4 10204536#5 10204536#6 36735997#0 36735997#1 36735997#2 36735997#3 36735997#4 36735997#5 36735997#6"/>
        <stop busStop="-427144104" duration="30.00"/>
    </vehicle>

    <vehicle id="66_bus_18:0" type="pt_bus" depart="336.00" departLane="0" arrival="1434.00">
        <route edges="-233102567 -30378052 -1255350561 111678871 36826391#1 50848414#0 50848414#1 50848414#2 50848414#3 50849188#0 50849188#1 50848416#0 50848416#1 -40927608#4 -40927608#3 40927608#3 40927608#4 50848417#0 50848417#1 50849189#0 50849189#1 1255350551#0 1255350551#1 1255350551#2 50848418#0 50848418#2 122106500#1 122106500#2 122106500#3 1255350559 -1255350557 122023118 165329099#0 165329099#1 227205334 1255350556 227205343#0 175482170 45357072 226852935 40079809 36826395 121904044 51732890 -1255350500 10204536#0 10204536#1 10204536#2 10204536#3 10204536#4 10204536#5 10204536#6 36735997#0 36735997#1 36735997#2 36735997#3 36735997#4 36735997#5 36735997#6"/>
        <stop busStop="-731417280" duration="30.00"/>
    </vehicle>

    <vehicle id="67_bus_18:1" type="pt_bus" depart="346.00" departLane="0" arrival="1436.00">